FoamFile
{
    version     2.0;
    format      ascii;
    class       polyBoundaryMesh;
    location    "constant/polyMesh";
    object      boundary;
}

4         
(
    INLET
    {
        type patch;
        nFaces 1044;
        startFace 1246578;
    }
    OUTLET-1
    {
        type patch;
        nFaces 502;
        startFace 1247622;
    }
    OUTLET-2
    {
        type patch;
        nFaces 368;
        startFace 1248124;
    }
    WALL
    {
        type wall;
        nFaces 44186;
        startFace 1248492;
    }
)
